&FCI NORB=   3,NELEC= 2,MS2=0,
  ORBSYM=1,1,1,
  ISYM=1,
 &END
 0.000   1   1   0   0
 0.500   2   1   0   0
 1.000   2   2   0   0
 0.250   3   1   0   0
 0.125   3   2   0   0
 3.000   3   3   0   0
