 &FCI NORB=   3,NELEC= 2,MS2=0,
  ORBSYM=1,1,1,
  ISYM=1,
 &END
 0.5336965248060409    1    1    1    1
 0.02736932197008007    1    1    2    1
 0.5185441490784604    1    1    2    2
 0.09653086304620108    1    1    3    1
 -0.07580046658237552    1    1    3    2
 0.5118395411074017    1    1    3    3
 0.02736932197008005    2    1    1    1
 0.1682595126309246    2    1    2    1
 0.09080081311719973    2    1    2    2
 -0.04392930955868486    2    1    3    1
 0.03425083145282917    2    1    3    2
 -0.1258358047891641    2    1    3    3
 0.5185441490784604    2    2    1    1
 0.09080081311719979    2    2    2    1
 0.5584044401469337    2    2    2    2
 0.07203880350997625    2    2    3    1
 -0.05188521782056555    2    2    3    2
 0.4483190167137245    2    2    3    3
 0.09653086304620108    3    1    1    1
 -0.04392930955868488    3    1    2    1
 0.07203880350997623    3    1    2    2
 0.09279163052347508    3    1    3    1
 -0.07259297836293201    3    1    3    2
 0.1808858545615574    3    1    3    3
 -0.07580046658237552    3    2    1    1
 0.03425083145282921    3    2    2    1
 -0.05188521782056556    3    2    2    2
 -0.07259297836293203    3    2    3    1
 0.06168093699580325    3    2    3    2
 -0.1419301702664682    3    2    3    3
 0.5118395411074018    3    3    1    1
 -0.1258358047891641    3    3    2    1
 0.4483190167137245    3    3    2    2
 0.1808858545615574    3    3    3    1
 -0.1419301702664682    3    3    3    2
 0.7049659204348467    3    3    3    3
 -0.9990928764948037    1    1  0  0
 -0.02736932223824422    2    1  0  0
 -0.6383876272777459    2    2  0  0
 -0.09653086413909509    3    1  0  0
 0.1076716241208142    3    2  0  0
 0.1138294648948003    3    3  0  0
 0.4293872334733436  0  0  0  0
